+ 1.00914 /NodeList/0/DeviceList/1/$ns3::PointToPointNetDevice/TxQueue/Enqueue ns3::PppHeader (Point-to-Point Protocol: IP (0x0021)) ns3::Ipv4Header (tos 0x0 DSCP Default ECN Not-ECT ttl 64 id 0 protocol 17 offset (bytes) 0 flags [none] length: 540 10.1.1.1 > 10.1.1.2) ns3::UdpHeader (length: 520 49153 > 9) Payload (size=512)
- 1.00914 /NodeList/0/DeviceList/1/$ns3::PointToPointNetDevice/TxQueue/Dequeue ns3::PppHeader (Point-to-Point Protocol: IP (0x0021)) ns3::Ipv4Header (tos 0x0 DSCP Default ECN Not-ECT ttl 64 id 0 protocol 17 offset (bytes) 0 flags [none] length: 540 10.1.1.1 > 10.1.1.2) ns3::UdpHeader (length: 520 49153 > 9) Payload (size=512)
+ 1.01829 /NodeList/0/DeviceList/1/$ns3::PointToPointNetDevice/TxQueue/Enqueue ns3::PppHeader (Point-to-Point Protocol: IP (0x0021)) ns3::Ipv4Header (tos 0x0 DSCP Default ECN Not-ECT ttl 64 id 1 protocol 17 offset (bytes) 0 flags [none] length: 540 10.1.1.1 > 10.1.1.2) ns3::UdpHeader (length: 520 49153 > 9) Payload (size=512)
- 1.01882 /NodeList/0/DeviceList/1/$ns3::PointToPointNetDevice/TxQueue/Dequeue ns3::PppHeader (Point-to-Point Protocol: IP (0x0021)) ns3::Ipv4Header (tos 0x0 DSCP Default ECN Not-ECT ttl 64 id 1 protocol 17 offset (bytes) 0 flags [none] length: 540 10.1.1.1 > 10.1.1.2) ns3::UdpHeader (length: 520 49153 > 9) Payload (size=512)
r 1.02082 /NodeList/3/DeviceList/1/$ns3::PointToPointNetDevice/MacRx ns3::PppHeader (Point-to-Point Protocol: IP (0x0021)) ns3::Ipv4Header (tos 0x0 DSCP Default ECN Not-ECT ttl 64 id 0 protocol 17 offset (bytes) 0 flags [none] length: 540 10.1.1.1 > 10.1.1.2) ns3::UdpHeader (length: 520 49153 > 9) Payload (size=512)
+ 1.02082 /NodeList/3/DeviceList/1/$ns3::PointToPointNetDevice/TxQueue/Enqueue ns3::PppHeader (Point-to-Point Protocol: IP (0x0021)) ns3::Ipv4Header (tos 0x0 DSCP Default ECN Not-ECT ttl 64 id 0 protocol 1 offset (bytes) 0 flags [none] length: 56 10.1.1.2 > 10.1.1.1) ns3::Icmpv4Header (type=3, code=3) ns3::Icmpv4DestinationUnreachable (tos 0x0 DSCP Default ECN Not-ECT ttl 64 id 0 protocol 17 offset (bytes) 0 flags [none] length: 540 10.1.1.1 > 10.1.1.2 org data=192 1 0 9 2 8 0 0 )
- 1.02082 /NodeList/3/DeviceList/1/$ns3::PointToPointNetDevice/TxQueue/Dequeue ns3::PppHeader (Point-to-Point Protocol: IP (0x0021)) ns3::Ipv4Header (tos 0x0 DSCP Default ECN Not-ECT ttl 64 id 0 protocol 1 offset (bytes) 0 flags [none] length: 56 10.1.1.2 > 10.1.1.1) ns3::Icmpv4Header (type=3, code=3) ns3::Icmpv4DestinationUnreachable (tos 0x0 DSCP Default ECN Not-ECT ttl 64 id 0 protocol 17 offset (bytes) 0 flags [none] length: 540 10.1.1.1 > 10.1.1.2 org data=192 1 0 9 2 8 0 0 )
r 1.02386 /NodeList/0/DeviceList/1/$ns3::PointToPointNetDevice/MacRx ns3::PppHeader (Point-to-Point Protocol: IP (0x0021)) ns3::Ipv4Header (tos 0x0 DSCP Default ECN Not-ECT ttl 64 id 0 protocol 1 offset (bytes) 0 flags [none] length: 56 10.1.1.2 > 10.1.1.1) ns3::Icmpv4Header (type=3, code=3) ns3::Icmpv4DestinationUnreachable (tos 0x0 DSCP Default ECN Not-ECT ttl 64 id 0 protocol 17 offset (bytes) 0 flags [none] length: 540 10.1.1.1 > 10.1.1.2 org data=192 1 0 9 2 8 0 0 )
+ 1.02743 /NodeList/0/DeviceList/1/$ns3::PointToPointNetDevice/TxQueue/Enqueue ns3::PppHeader (Point-to-Point Protocol: IP (0x0021)) ns3::Ipv4Header (tos 0x0 DSCP Default ECN Not-ECT ttl 64 id 2 protocol 17 offset (bytes) 0 flags [none] length: 540 10.1.1.1 > 10.1.1.2) ns3::UdpHeader (length: 520 49153 > 9) Payload (size=512)
- 1.0285 /NodeList/0/DeviceList/1/$ns3::PointToPointNetDevice/TxQueue/Dequeue ns3::PppHeader (Point-to-Point Protocol: IP (0x0021)) ns3::Ipv4Header (tos 0x0 DSCP Default ECN Not-ECT ttl 64 id 2 protocol 17 offset (bytes) 0 flags [none] length: 540 10.1.1.1 > 10.1.1.2) ns3::UdpHeader (length: 520 49153 > 9) Payload (size=512)
r 1.0305 /NodeList/3/DeviceList/1/$ns3::PointToPointNetDevice/MacRx ns3::PppHeader (Point-to-Point Protocol: IP (0x0021)) ns3::Ipv4Header (tos 0x0 DSCP Default ECN Not-ECT ttl 64 id 1 protocol 17 offset (bytes) 0 flags [none] length: 540 10.1.1.1 > 10.1.1.2) ns3::UdpHeader (length: 520 49153 > 9) Payload (size=512)
+ 1.0305 /NodeList/3/DeviceList/1/$ns3::PointToPointNetDevice/TxQueue/Enqueue ns3::PppHeader (Point-to-Point Protocol: IP (0x0021)) ns3::Ipv4Header (tos 0x0 DSCP Default ECN Not-ECT ttl 64 id 1 protocol 1 offset (bytes) 0 flags [none] length: 56 10.1.1.2 > 10.1.1.1) ns3::Icmpv4Header (type=3, code=3) ns3::Icmpv4DestinationUnreachable (tos 0x0 DSCP Default ECN Not-ECT ttl 64 id 1 protocol 17 offset (bytes) 0 flags [none] length: 540 10.1.1.1 > 10.1.1.2 org data=192 1 0 9 2 8 0 0 )
- 1.0305 /NodeList/3/DeviceList/1/$ns3::PointToPointNetDevice/TxQueue/Dequeue ns3::PppHeader (Point-to-Point Protocol: IP (0x0021)) ns3::Ipv4Header (tos 0x0 DSCP Default ECN Not-ECT ttl 64 id 1 protocol 1 offset (bytes) 0 flags [none] length: 56 10.1.1.2 > 10.1.1.1) ns3::Icmpv4Header (type=3, code=3) ns3::Icmpv4DestinationUnreachable (tos 0x0 DSCP Default ECN Not-ECT ttl 64 id 1 protocol 17 offset (bytes) 0 flags [none] length: 540 10.1.1.1 > 10.1.1.2 org data=192 1 0 9 2 8 0 0 )
r 1.03354 /NodeList/0/DeviceList/1/$ns3::PointToPointNetDevice/MacRx ns3::PppHeader (Point-to-Point Protocol: IP (0x0021)) ns3::Ipv4Header (tos 0x0 DSCP Default ECN Not-ECT ttl 64 id 1 protocol 1 offset (bytes) 0 flags [none] length: 56 10.1.1.2 > 10.1.1.1) ns3::Icmpv4Header (type=3, code=3) ns3::Icmpv4DestinationUnreachable (tos 0x0 DSCP Default ECN Not-ECT ttl 64 id 1 protocol 17 offset (bytes) 0 flags [none] length: 540 10.1.1.1 > 10.1.1.2 org data=192 1 0 9 2 8 0 0 )
+ 1.03657 /NodeList/0/DeviceList/1/$ns3::PointToPointNetDevice/TxQueue/Enqueue ns3::PppHeader (Point-to-Point Protocol: IP (0x0021)) ns3::Ipv4Header (tos 0x0 DSCP Default ECN Not-ECT ttl 64 id 3 protocol 17 offset (bytes) 0 flags [none] length: 540 10.1.1.1 > 10.1.1.2) ns3::UdpHeader (length: 520 49153 > 9) Payload (size=512)
- 1.03818 /NodeList/0/DeviceList/1/$ns3::PointToPointNetDevice/TxQueue/Dequeue ns3::PppHeader (Point-to-Point Protocol: IP (0x0021)) ns3::Ipv4Header (tos 0x0 DSCP Default ECN Not-ECT ttl 64 id 3 protocol 17 offset (bytes) 0 flags [none] length: 540 10.1.1.1 > 10.1.1.2) ns3::UdpHeader (length: 520 49153 > 9) Payload (size=512)
r 1.04018 /NodeList/3/DeviceList/1/$ns3::PointToPointNetDevice/MacRx ns3::PppHeader (Point-to-Point Protocol: IP (0x0021)) ns3::Ipv4Header (tos 0x0 DSCP Default ECN Not-ECT ttl 64 id 2 protocol 17 offset (bytes) 0 flags [none] length: 540 10.1.1.1 > 10.1.1.2) ns3::UdpHeader (length: 520 49153 > 9) Payload (size=512)
+ 1.04018 /NodeList/3/DeviceList/1/$ns3::PointToPointNetDevice/TxQueue/Enqueue ns3::PppHeader (Point-to-Point Protocol: IP (0x0021)) ns3::Ipv4Header (tos 0x0 DSCP Default ECN Not-ECT ttl 64 id 2 protocol 1 offset (bytes) 0 flags [none] length: 56 10.1.1.2 > 10.1.1.1) ns3::Icmpv4Header (type=3, code=3) ns3::Icmpv4DestinationUnreachable (tos 0x0 DSCP Default ECN Not-ECT ttl 64 id 2 protocol 17 offset (bytes) 0 flags [none] length: 540 10.1.1.1 > 10.1.1.2 org data=192 1 0 9 2 8 0 0 )
- 1.04018 /NodeList/3/DeviceList/1/$ns3::PointToPointNetDevice/TxQueue/Dequeue ns3::PppHeader (Point-to-Point Protocol: IP (0x0021)) ns3::Ipv4Header (tos 0x0 DSCP Default ECN Not-ECT ttl 64 id 2 protocol 1 offset (bytes) 0 flags [none] length: 56 10.1.1.2 > 10.1.1.1) ns3::Icmpv4Header (type=3, code=3) ns3::Icmpv4DestinationUnreachable (tos 0x0 DSCP Default ECN Not-ECT ttl 64 id 2 protocol 17 offset (bytes) 0 flags [none] length: 540 10.1.1.1 > 10.1.1.2 org data=192 1 0 9 2 8 0 0 )
r 1.04321 /NodeList/0/DeviceList/1/$ns3::PointToPointNetDevice/MacRx ns3::PppHeader (Point-to-Point Protocol: IP (0x0021)) ns3::Ipv4Header (tos 0x0 DSCP Default ECN Not-ECT ttl 64 id 2 protocol 1 offset (bytes) 0 flags [none] length: 56 10.1.1.2 > 10.1.1.1) ns3::Icmpv4Header (type=3, code=3) ns3::Icmpv4DestinationUnreachable (tos 0x0 DSCP Default ECN Not-ECT ttl 64 id 2 protocol 17 offset (bytes) 0 flags [none] length: 540 10.1.1.1 > 10.1.1.2 org data=192 1 0 9 2 8 0 0 )
+ 1.04571 /NodeList/0/DeviceList/1/$ns3::PointToPointNetDevice/TxQueue/Enqueue ns3::PppHeader (Point-to-Point Protocol: IP (0x0021)) ns3::Ipv4Header (tos 0x0 DSCP Default ECN Not-ECT ttl 64 id 4 protocol 17 offset (bytes) 0 flags [none] length: 540 10.1.1.1 > 10.1.1.2) ns3::UdpHeader (length: 520 49153 > 9) Payload (size=512)
- 1.04786 /NodeList/0/DeviceList/1/$ns3::PointToPointNetDevice/TxQueue/Dequeue ns3::PppHeader (Point-to-Point Protocol: IP (0x0021)) ns3::Ipv4Header (tos 0x0 DSCP Default ECN Not-ECT ttl 64 id 4 protocol 17 offset (bytes) 0 flags [none] length: 540 10.1.1.1 > 10.1.1.2) ns3::UdpHeader (length: 520 49153 > 9) Payload (size=512)
r 1.04986 /NodeList/3/DeviceList/1/$ns3::PointToPointNetDevice/MacRx ns3::PppHeader (Point-to-Point Protocol: IP (0x0021)) ns3::Ipv4Header (tos 0x0 DSCP Default ECN Not-ECT ttl 64 id 3 protocol 17 offset (bytes) 0 flags [none] length: 540 10.1.1.1 > 10.1.1.2) ns3::UdpHeader (length: 520 49153 > 9) Payload (size=512)
+ 1.04986 /NodeList/3/DeviceList/1/$ns3::PointToPointNetDevice/TxQueue/Enqueue ns3::PppHeader (Point-to-Point Protocol: IP (0x0021)) ns3::Ipv4Header (tos 0x0 DSCP Default ECN Not-ECT ttl 64 id 3 protocol 1 offset (bytes) 0 flags [none] length: 56 10.1.1.2 > 10.1.1.1) ns3::Icmpv4Header (type=3, code=3) ns3::Icmpv4DestinationUnreachable (tos 0x0 DSCP Default ECN Not-ECT ttl 64 id 3 protocol 17 offset (bytes) 0 flags [none] length: 540 10.1.1.1 > 10.1.1.2 org data=192 1 0 9 2 8 0 0 )
- 1.04986 /NodeList/3/DeviceList/1/$ns3::PointToPointNetDevice/TxQueue/Dequeue ns3::PppHeader (Point-to-Point Protocol: IP (0x0021)) ns3::Ipv4Header (tos 0x0 DSCP Default ECN Not-ECT ttl 64 id 3 protocol 1 offset (bytes) 0 flags [none] length: 56 10.1.1.2 > 10.1.1.1) ns3::Icmpv4Header (type=3, code=3) ns3::Icmpv4DestinationUnreachable (tos 0x0 DSCP Default ECN Not-ECT ttl 64 id 3 protocol 17 offset (bytes) 0 flags [none] length: 540 10.1.1.1 > 10.1.1.2 org data=192 1 0 9 2 8 0 0 )
r 1.05289 /NodeList/0/DeviceList/1/$ns3::PointToPointNetDevice/MacRx ns3::PppHeader (Point-to-Point Protocol: IP (0x0021)) ns3::Ipv4Header (tos 0x0 DSCP Default ECN Not-ECT ttl 64 id 3 protocol 1 offset (bytes) 0 flags [none] length: 56 10.1.1.2 > 10.1.1.1) ns3::Icmpv4Header (type=3, code=3) ns3::Icmpv4DestinationUnreachable (tos 0x0 DSCP Default ECN Not-ECT ttl 64 id 3 protocol 17 offset (bytes) 0 flags [none] length: 540 10.1.1.1 > 10.1.1.2 org data=192 1 0 9 2 8 0 0 )
+ 1.05486 /NodeList/0/DeviceList/1/$ns3::PointToPointNetDevice/TxQueue/Enqueue ns3::PppHeader (Point-to-Point Protocol: IP (0x0021)) ns3::Ipv4Header (tos 0x0 DSCP Default ECN Not-ECT ttl 64 id 5 protocol 17 offset (bytes) 0 flags [none] length: 540 10.1.1.1 > 10.1.1.2) ns3::UdpHeader (length: 520 49153 > 9) Payload (size=512)
- 1.05754 /NodeList/0/DeviceList/1/$ns3::PointToPointNetDevice/TxQueue/Dequeue ns3::PppHeader (Point-to-Point Protocol: IP (0x0021)) ns3::Ipv4Header (tos 0x0 DSCP Default ECN Not-ECT ttl 64 id 5 protocol 17 offset (bytes) 0 flags [none] length: 540 10.1.1.1 > 10.1.1.2) ns3::UdpHeader (length: 520 49153 > 9) Payload (size=512)
r 1.05954 /NodeList/3/DeviceList/1/$ns3::PointToPointNetDevice/MacRx ns3::PppHeader (Point-to-Point Protocol: IP (0x0021)) ns3::Ipv4Header (tos 0x0 DSCP Default ECN Not-ECT ttl 64 id 4 protocol 17 offset (bytes) 0 flags [none] length: 540 10.1.1.1 > 10.1.1.2) ns3::UdpHeader (length: 520 49153 > 9) Payload (size=512)
+ 1.05954 /NodeList/3/DeviceList/1/$ns3::PointToPointNetDevice/TxQueue/Enqueue ns3::PppHeader (Point-to-Point Protocol: IP (0x0021)) ns3::Ipv4Header (tos 0x0 DSCP Default ECN Not-ECT ttl 64 id 4 protocol 1 offset (bytes) 0 flags [none] length: 56 10.1.1.2 > 10.1.1.1) ns3::Icmpv4Header (type=3, code=3) ns3::Icmpv4DestinationUnreachable (tos 0x0 DSCP Default ECN Not-ECT ttl 64 id 4 protocol 17 offset (bytes) 0 flags [none] length: 540 10.1.1.1 > 10.1.1.2 org data=192 1 0 9 2 8 0 0 )
- 1.05954 /NodeList/3/DeviceList/1/$ns3::PointToPointNetDevice/TxQueue/Dequeue ns3::PppHeader (Point-to-Point Protocol: IP (0x0021)) ns3::Ipv4Header (tos 0x0 DSCP Default ECN Not-ECT ttl 64 id 4 protocol 1 offset (bytes) 0 flags [none] length: 56 10.1.1.2 > 10.1.1.1) ns3::Icmpv4Header (type=3, code=3) ns3::Icmpv4DestinationUnreachable (tos 0x0 DSCP Default ECN Not-ECT ttl 64 id 4 protocol 17 offset (bytes) 0 flags [none] length: 540 10.1.1.1 > 10.1.1.2 org data=192 1 0 9 2 8 0 0 )
r 1.06257 /NodeList/0/DeviceList/1/$ns3::PointToPointNetDevice/MacRx ns3::PppHeader (Point-to-Point Protocol: IP (0x0021)) ns3::Ipv4Header (tos 0x0 DSCP Default ECN Not-ECT ttl 64 id 4 protocol 1 offset (bytes) 0 flags [none] length: 56 10.1.1.2 > 10.1.1.1) ns3::Icmpv4Header (type=3, code=3) ns3::Icmpv4DestinationUnreachable (tos 0x0 DSCP Default ECN Not-ECT ttl 64 id 4 protocol 17 offset (bytes) 0 flags [none] length: 540 10.1.1.1 > 10.1.1.2 org data=192 1 0 9 2 8 0 0 )
+ 1.064 /NodeList/0/DeviceList/1/$ns3::PointToPointNetDevice/TxQueue/Enqueue ns3::PppHeader (Point-to-Point Protocol: IP (0x0021)) ns3::Ipv4Header (tos 0x0 DSCP Default ECN Not-ECT ttl 64 id 6 protocol 17 offset (bytes) 0 flags [none] length: 540 10.1.1.1 > 10.1.1.2) ns3::UdpHeader (length: 520 49153 > 9) Payload (size=512)
- 1.06721 /NodeList/0/DeviceList/1/$ns3::PointToPointNetDevice/TxQueue/Dequeue ns3::PppHeader (Point-to-Point Protocol: IP (0x0021)) ns3::Ipv4Header (tos 0x0 DSCP Default ECN Not-ECT ttl 64 id 6 protocol 17 offset (bytes) 0 flags [none] length: 540 10.1.1.1 > 10.1.1.2) ns3::UdpHeader (length: 520 49153 > 9) Payload (size=512)
r 1.06921 /NodeList/3/DeviceList/1/$ns3::PointToPointNetDevice/MacRx ns3::PppHeader (Point-to-Point Protocol: IP (0x0021)) ns3::Ipv4Header (tos 0x0 DSCP Default ECN Not-ECT ttl 64 id 5 protocol 17 offset (bytes) 0 flags [none] length: 540 10.1.1.1 > 10.1.1.2) ns3::UdpHeader (length: 520 49153 > 9) Payload (size=512)
+ 1.06921 /NodeList/3/DeviceList/1/$ns3::PointToPointNetDevice/TxQueue/Enqueue ns3::PppHeader (Point-to-Point Protocol: IP (0x0021)) ns3::Ipv4Header (tos 0x0 DSCP Default ECN Not-ECT ttl 64 id 5 protocol 1 offset (bytes) 0 flags [none] length: 56 10.1.1.2 > 10.1.1.1) ns3::Icmpv4Header (type=3, code=3) ns3::Icmpv4DestinationUnreachable (tos 0x0 DSCP Default ECN Not-ECT ttl 64 id 5 protocol 17 offset (bytes) 0 flags [none] length: 540 10.1.1.1 > 10.1.1.2 org data=192 1 0 9 2 8 0 0 )
- 1.06921 /NodeList/3/DeviceList/1/$ns3::PointToPointNetDevice/TxQueue/Dequeue ns3::PppHeader (Point-to-Point Protocol: IP (0x0021)) ns3::Ipv4Header (tos 0x0 DSCP Default ECN Not-ECT ttl 64 id 5 protocol 1 offset (bytes) 0 flags [none] length: 56 10.1.1.2 > 10.1.1.1) ns3::Icmpv4Header (type=3, code=3) ns3::Icmpv4DestinationUnreachable (tos 0x0 DSCP Default ECN Not-ECT ttl 64 id 5 protocol 17 offset (bytes) 0 flags [none] length: 540 10.1.1.1 > 10.1.1.2 org data=192 1 0 9 2 8 0 0 )
r 1.07225 /NodeList/0/DeviceList/1/$ns3::PointToPointNetDevice/MacRx ns3::PppHeader (Point-to-Point Protocol: IP (0x0021)) ns3::Ipv4Header (tos 0x0 DSCP Default ECN Not-ECT ttl 64 id 5 protocol 1 offset (bytes) 0 flags [none] length: 56 10.1.1.2 > 10.1.1.1) ns3::Icmpv4Header (type=3, code=3) ns3::Icmpv4DestinationUnreachable (tos 0x0 DSCP Default ECN Not-ECT ttl 64 id 5 protocol 17 offset (bytes) 0 flags [none] length: 540 10.1.1.1 > 10.1.1.2 org data=192 1 0 9 2 8 0 0 )
+ 1.07314 /NodeList/0/DeviceList/1/$ns3::PointToPointNetDevice/TxQueue/Enqueue ns3::PppHeader (Point-to-Point Protocol: IP (0x0021)) ns3::Ipv4Header (tos 0x0 DSCP Default ECN Not-ECT ttl 64 id 7 protocol 17 offset (bytes) 0 flags [none] length: 540 10.1.1.1 > 10.1.1.2) ns3::UdpHeader (length: 520 49153 > 9) Payload (size=512)
- 1.07689 /NodeList/0/DeviceList/1/$ns3::PointToPointNetDevice/TxQueue/Dequeue ns3::PppHeader (Point-to-Point Protocol: IP (0x0021)) ns3::Ipv4Header (tos 0x0 DSCP Default ECN Not-ECT ttl 64 id 7 protocol 17 offset (bytes) 0 flags [none] length: 540 10.1.1.1 > 10.1.1.2) ns3::UdpHeader (length: 520 49153 > 9) Payload (size=512)
r 1.07889 /NodeList/3/DeviceList/1/$ns3::PointToPointNetDevice/MacRx ns3::PppHeader (Point-to-Point Protocol: IP (0x0021)) ns3::Ipv4Header (tos 0x0 DSCP Default ECN Not-ECT ttl 64 id 6 protocol 17 offset (bytes) 0 flags [none] length: 540 10.1.1.1 > 10.1.1.2) ns3::UdpHeader (length: 520 49153 > 9) Payload (size=512)
+ 1.07889 /NodeList/3/DeviceList/1/$ns3::PointToPointNetDevice/TxQueue/Enqueue ns3::PppHeader (Point-to-Point Protocol: IP (0x0021)) ns3::Ipv4Header (tos 0x0 DSCP Default ECN Not-ECT ttl 64 id 6 protocol 1 offset (bytes) 0 flags [none] length: 56 10.1.1.2 > 10.1.1.1) ns3::Icmpv4Header (type=3, code=3) ns3::Icmpv4DestinationUnreachable (tos 0x0 DSCP Default ECN Not-ECT ttl 64 id 6 protocol 17 offset (bytes) 0 flags [none] length: 540 10.1.1.1 > 10.1.1.2 org data=192 1 0 9 2 8 0 0 )
- 1.07889 /NodeList/3/DeviceList/1/$ns3::PointToPointNetDevice/TxQueue/Dequeue ns3::PppHeader (Point-to-Point Protocol: IP (0x0021)) ns3::Ipv4Header (tos 0x0 DSCP Default ECN Not-ECT ttl 64 id 6 protocol 1 offset (bytes) 0 flags [none] length: 56 10.1.1.2 > 10.1.1.1) ns3::Icmpv4Header (type=3, code=3) ns3::Icmpv4DestinationUnreachable (tos 0x0 DSCP Default ECN Not-ECT ttl 64 id 6 protocol 17 offset (bytes) 0 flags [none] length: 540 10.1.1.1 > 10.1.1.2 org data=192 1 0 9 2 8 0 0 )
r 1.08193 /NodeList/0/DeviceList/1/$ns3::PointToPointNetDevice/MacRx ns3::PppHeader (Point-to-Point Protocol: IP (0x0021)) ns3::Ipv4Header (tos 0x0 DSCP Default ECN Not-ECT ttl 64 id 6 protocol 1 offset (bytes) 0 flags [none] length: 56 10.1.1.2 > 10.1.1.1) ns3::Icmpv4Header (type=3, code=3) ns3::Icmpv4DestinationUnreachable (tos 0x0 DSCP Default ECN Not-ECT ttl 64 id 6 protocol 17 offset (bytes) 0 flags [none] length: 540 10.1.1.1 > 10.1.1.2 org data=192 1 0 9 2 8 0 0 )
+ 1.08229 /NodeList/0/DeviceList/1/$ns3::PointToPointNetDevice/TxQueue/Enqueue ns3::PppHeader (Point-to-Point Protocol: IP (0x0021)) ns3::Ipv4Header (tos 0x0 DSCP Default ECN Not-ECT ttl 64 id 8 protocol 17 offset (bytes) 0 flags [none] length: 540 10.1.1.1 > 10.1.1.2) ns3::UdpHeader (length: 520 49153 > 9) Payload (size=512)
- 1.08657 /NodeList/0/DeviceList/1/$ns3::PointToPointNetDevice/TxQueue/Dequeue ns3::PppHeader (Point-to-Point Protocol: IP (0x0021)) ns3::Ipv4Header (tos 0x0 DSCP Default ECN Not-ECT ttl 64 id 8 protocol 17 offset (bytes) 0 flags [none] length: 540 10.1.1.1 > 10.1.1.2) ns3::UdpHeader (length: 520 49153 > 9) Payload (size=512)
r 1.08857 /NodeList/3/DeviceList/1/$ns3::PointToPointNetDevice/MacRx ns3::PppHeader (Point-to-Point Protocol: IP (0x0021)) ns3::Ipv4Header (tos 0x0 DSCP Default ECN Not-ECT ttl 64 id 7 protocol 17 offset (bytes) 0 flags [none] length: 540 10.1.1.1 > 10.1.1.2) ns3::UdpHeader (length: 520 49153 > 9) Payload (size=512)
+ 1.08857 /NodeList/3/DeviceList/1/$ns3::PointToPointNetDevice/TxQueue/Enqueue ns3::PppHeader (Point-to-Point Protocol: IP (0x0021)) ns3::Ipv4Header (tos 0x0 DSCP Default ECN Not-ECT ttl 64 id 7 protocol 1 offset (bytes) 0 flags [none] length: 56 10.1.1.2 > 10.1.1.1) ns3::Icmpv4Header (type=3, code=3) ns3::Icmpv4DestinationUnreachable (tos 0x0 DSCP Default ECN Not-ECT ttl 64 id 7 protocol 17 offset (bytes) 0 flags [none] length: 540 10.1.1.1 > 10.1.1.2 org data=192 1 0 9 2 8 0 0 )
- 1.08857 /NodeList/3/DeviceList/1/$ns3::PointToPointNetDevice/TxQueue/Dequeue ns3::PppHeader (Point-to-Point Protocol: IP (0x0021)) ns3::Ipv4Header (tos 0x0 DSCP Default ECN Not-ECT ttl 64 id 7 protocol 1 offset (bytes) 0 flags [none] length: 56 10.1.1.2 > 10.1.1.1) ns3::Icmpv4Header (type=3, code=3) ns3::Icmpv4DestinationUnreachable (tos 0x0 DSCP Default ECN Not-ECT ttl 64 id 7 protocol 17 offset (bytes) 0 flags [none] length: 540 10.1.1.1 > 10.1.1.2 org data=192 1 0 9 2 8 0 0 )
+ 1.09143 /NodeList/0/DeviceList/1/$ns3::PointToPointNetDevice/TxQueue/Enqueue ns3::PppHeader (Point-to-Point Protocol: IP (0x0021)) ns3::Ipv4Header (tos 0x0 DSCP Default ECN Not-ECT ttl 64 id 9 protocol 17 offset (bytes) 0 flags [none] length: 540 10.1.1.1 > 10.1.1.2) ns3::UdpHeader (length: 520 49153 > 9) Payload (size=512)
r 1.09161 /NodeList/0/DeviceList/1/$ns3::PointToPointNetDevice/MacRx ns3::PppHeader (Point-to-Point Protocol: IP (0x0021)) ns3::Ipv4Header (tos 0x0 DSCP Default ECN Not-ECT ttl 64 id 7 protocol 1 offset (bytes) 0 flags [none] length: 56 10.1.1.2 > 10.1.1.1) ns3::Icmpv4Header (type=3, code=3) ns3::Icmpv4DestinationUnreachable (tos 0x0 DSCP Default ECN Not-ECT ttl 64 id 7 protocol 17 offset (bytes) 0 flags [none] length: 540 10.1.1.1 > 10.1.1.2 org data=192 1 0 9 2 8 0 0 )
- 1.09625 /NodeList/0/DeviceList/1/$ns3::PointToPointNetDevice/TxQueue/Dequeue ns3::PppHeader (Point-to-Point Protocol: IP (0x0021)) ns3::Ipv4Header (tos 0x0 DSCP Default ECN Not-ECT ttl 64 id 9 protocol 17 offset (bytes) 0 flags [none] length: 540 10.1.1.1 > 10.1.1.2) ns3::UdpHeader (length: 520 49153 > 9) Payload (size=512)
r 1.09825 /NodeList/3/DeviceList/1/$ns3::PointToPointNetDevice/MacRx ns3::PppHeader (Point-to-Point Protocol: IP (0x0021)) ns3::Ipv4Header (tos 0x0 DSCP Default ECN Not-ECT ttl 64 id 8 protocol 17 offset (bytes) 0 flags [none] length: 540 10.1.1.1 > 10.1.1.2) ns3::UdpHeader (length: 520 49153 > 9) Payload (size=512)
+ 1.09825 /NodeList/3/DeviceList/1/$ns3::PointToPointNetDevice/TxQueue/Enqueue ns3::PppHeader (Point-to-Point Protocol: IP (0x0021)) ns3::Ipv4Header (tos 0x0 DSCP Default ECN Not-ECT ttl 64 id 8 protocol 1 offset (bytes) 0 flags [none] length: 56 10.1.1.2 > 10.1.1.1) ns3::Icmpv4Header (type=3, code=3) ns3::Icmpv4DestinationUnreachable (tos 0x0 DSCP Default ECN Not-ECT ttl 64 id 8 protocol 17 offset (bytes) 0 flags [none] length: 540 10.1.1.1 > 10.1.1.2 org data=192 1 0 9 2 8 0 0 )
- 1.09825 /NodeList/3/DeviceList/1/$ns3::PointToPointNetDevice/TxQueue/Dequeue ns3::PppHeader (Point-to-Point Protocol: IP (0x0021)) ns3::Ipv4Header (tos 0x0 DSCP Default ECN Not-ECT ttl 64 id 8 protocol 1 offset (bytes) 0 flags [none] length: 56 10.1.1.2 > 10.1.1.1) ns3::Icmpv4Header (type=3, code=3) ns3::Icmpv4DestinationUnreachable (tos 0x0 DSCP Default ECN Not-ECT ttl 64 id 8 protocol 17 offset (bytes) 0 flags [none] length: 540 10.1.1.1 > 10.1.1.2 org data=192 1 0 9 2 8 0 0 )
+ 1.10057 /NodeList/0/DeviceList/1/$ns3::PointToPointNetDevice/TxQueue/Enqueue ns3::PppHeader (Point-to-Point Protocol: IP (0x0021)) ns3::Ipv4Header (tos 0x0 DSCP Default ECN Not-ECT ttl 64 id 10 protocol 17 offset (bytes) 0 flags [none] length: 540 10.1.1.1 > 10.1.1.2) ns3::UdpHeader (length: 520 49153 > 9) Payload (size=512)
r 1.10129 /NodeList/0/DeviceList/1/$ns3::PointToPointNetDevice/MacRx ns3::PppHeader (Point-to-Point Protocol: IP (0x0021)) ns3::Ipv4Header (tos 0x0 DSCP Default ECN Not-ECT ttl 64 id 8 protocol 1 offset (bytes) 0 flags [none] length: 56 10.1.1.2 > 10.1.1.1) ns3::Icmpv4Header (type=3, code=3) ns3::Icmpv4DestinationUnreachable (tos 0x0 DSCP Default ECN Not-ECT ttl 64 id 8 protocol 17 offset (bytes) 0 flags [none] length: 540 10.1.1.1 > 10.1.1.2 org data=192 1 0 9 2 8 0 0 )
- 1.10593 /NodeList/0/DeviceList/1/$ns3::PointToPointNetDevice/TxQueue/Dequeue ns3::PppHeader (Point-to-Point Protocol: IP (0x0021)) ns3::Ipv4Header (tos 0x0 DSCP Default ECN Not-ECT ttl 64 id 10 protocol 17 offset (bytes) 0 flags [none] length: 540 10.1.1.1 > 10.1.1.2) ns3::UdpHeader (length: 520 49153 > 9) Payload (size=512)
r 1.10793 /NodeList/3/DeviceList/1/$ns3::PointToPointNetDevice/MacRx ns3::PppHeader (Point-to-Point Protocol: IP (0x0021)) ns3::Ipv4Header (tos 0x0 DSCP Default ECN Not-ECT ttl 64 id 9 protocol 17 offset (bytes) 0 flags [none] length: 540 10.1.1.1 > 10.1.1.2) ns3::UdpHeader (length: 520 49153 > 9) Payload (size=512)
+ 1.10793 /NodeList/3/DeviceList/1/$ns3::PointToPointNetDevice/TxQueue/Enqueue ns3::PppHeader (Point-to-Point Protocol: IP (0x0021)) ns3::Ipv4Header (tos 0x0 DSCP Default ECN Not-ECT ttl 64 id 9 protocol 1 offset (bytes) 0 flags [none] length: 56 10.1.1.2 > 10.1.1.1) ns3::Icmpv4Header (type=3, code=3) ns3::Icmpv4DestinationUnreachable (tos 0x0 DSCP Default ECN Not-ECT ttl 64 id 9 protocol 17 offset (bytes) 0 flags [none] length: 540 10.1.1.1 > 10.1.1.2 org data=192 1 0 9 2 8 0 0 )
- 1.10793 /NodeList/3/DeviceList/1/$ns3::PointToPointNetDevice/TxQueue/Dequeue ns3::PppHeader (Point-to-Point Protocol: IP (0x0021)) ns3::Ipv4Header (tos 0x0 DSCP Default ECN Not-ECT ttl 64 id 9 protocol 1 offset (bytes) 0 flags [none] length: 56 10.1.1.2 > 10.1.1.1) ns3::Icmpv4Header (type=3, code=3) ns3::Icmpv4DestinationUnreachable (tos 0x0 DSCP Default ECN Not-ECT ttl 64 id 9 protocol 17 offset (bytes) 0 flags [none] length: 540 10.1.1.1 > 10.1.1.2 org data=192 1 0 9 2 8 0 0 )
+ 1.10914 /NodeList/1/DeviceList/1/$ns3::PointToPointNetDevice/TxQueue/Enqueue ns3::PppHeader (Point-to-Point Protocol: IP (0x0021)) ns3::Ipv4Header (tos 0x0 DSCP Default ECN Not-ECT ttl 64 id 0 protocol 17 offset (bytes) 0 flags [none] length: 540 10.1.2.1 > 10.1.2.2) ns3::UdpHeader (length: 520 49153 > 9) Payload (size=512)
- 1.10914 /NodeList/1/DeviceList/1/$ns3::PointToPointNetDevice/TxQueue/Dequeue ns3::PppHeader (Point-to-Point Protocol: IP (0x0021)) ns3::Ipv4Header (tos 0x0 DSCP Default ECN Not-ECT ttl 64 id 0 protocol 17 offset (bytes) 0 flags [none] length: 540 10.1.2.1 > 10.1.2.2) ns3::UdpHeader (length: 520 49153 > 9) Payload (size=512)
+ 1.10971 /NodeList/0/DeviceList/1/$ns3::PointToPointNetDevice/TxQueue/Enqueue ns3::PppHeader (Point-to-Point Protocol: IP (0x0021)) ns3::Ipv4Header (tos 0x0 DSCP Default ECN Not-ECT ttl 64 id 11 protocol 17 offset (bytes) 0 flags [none] length: 540 10.1.1.1 > 10.1.1.2) ns3::UdpHeader (length: 520 49153 > 9) Payload (size=512)
r 1.11096 /NodeList/0/DeviceList/1/$ns3::PointToPointNetDevice/MacRx ns3::PppHeader (Point-to-Point Protocol: IP (0x0021)) ns3::Ipv4Header (tos 0x0 DSCP Default ECN Not-ECT ttl 64 id 9 protocol 1 offset (bytes) 0 flags [none] length: 56 10.1.1.2 > 10.1.1.1) ns3::Icmpv4Header (type=3, code=3) ns3::Icmpv4DestinationUnreachable (tos 0x0 DSCP Default ECN Not-ECT ttl 64 id 9 protocol 17 offset (bytes) 0 flags [none] length: 540 10.1.1.1 > 10.1.1.2 org data=192 1 0 9 2 8 0 0 )
- 1.11561 /NodeList/0/DeviceList/1/$ns3::PointToPointNetDevice/TxQueue/Dequeue ns3::PppHeader (Point-to-Point Protocol: IP (0x0021)) ns3::Ipv4Header (tos 0x0 DSCP Default ECN Not-ECT ttl 64 id 11 protocol 17 offset (bytes) 0 flags [none] length: 540 10.1.1.1 > 10.1.1.2) ns3::UdpHeader (length: 520 49153 > 9) Payload (size=512)
r 1.11761 /NodeList/3/DeviceList/1/$ns3::PointToPointNetDevice/MacRx ns3::PppHeader (Point-to-Point Protocol: IP (0x0021)) ns3::Ipv4Header (tos 0x0 DSCP Default ECN Not-ECT ttl 64 id 10 protocol 17 offset (bytes) 0 flags [none] length: 540 10.1.1.1 > 10.1.1.2) ns3::UdpHeader (length: 520 49153 > 9) Payload (size=512)
+ 1.11761 /NodeList/3/DeviceList/1/$ns3::PointToPointNetDevice/TxQueue/Enqueue ns3::PppHeader (Point-to-Point Protocol: IP (0x0021)) ns3::Ipv4Header (tos 0x0 DSCP Default ECN Not-ECT ttl 64 id 10 protocol 1 offset (bytes) 0 flags [none] length: 56 10.1.1.2 > 10.1.1.1) ns3::Icmpv4Header (type=3, code=3) ns3::Icmpv4DestinationUnreachable (tos 0x0 DSCP Default ECN Not-ECT ttl 64 id 10 protocol 17 offset (bytes) 0 flags [none] length: 540 10.1.1.1 > 10.1.1.2 org data=192 1 0 9 2 8 0 0 )
- 1.11761 /NodeList/3/DeviceList/1/$ns3::PointToPointNetDevice/TxQueue/Dequeue ns3::PppHeader (Point-to-Point Protocol: IP (0x0021)) ns3::Ipv4Header (tos 0x0 DSCP Default ECN Not-ECT ttl 64 id 10 protocol 1 offset (bytes) 0 flags [none] length: 56 10.1.1.2 > 10.1.1.1) ns3::Icmpv4Header (type=3, code=3) ns3::Icmpv4DestinationUnreachable (tos 0x0 DSCP Default ECN Not-ECT ttl 64 id 10 protocol 17 offset (bytes) 0 flags [none] length: 540 10.1.1.1 > 10.1.1.2 org data=192 1 0 9 2 8 0 0 )
+ 1.11829 /NodeList/1/DeviceList/1/$ns3::PointToPointNetDevice/TxQueue/Enqueue ns3::PppHeader (Point-to-Point Protocol: IP (0x0021)) ns3::Ipv4Header (tos 0x0 DSCP Default ECN Not-ECT ttl 64 id 1 protocol 17 offset (bytes) 0 flags [none] length: 540 10.1.2.1 > 10.1.2.2) ns3::UdpHeader (length: 520 49153 > 9) Payload (size=512)
- 1.11882 /NodeList/1/DeviceList/1/$ns3::PointToPointNetDevice/TxQueue/Dequeue ns3::PppHeader (Point-to-Point Protocol: IP (0x0021)) ns3::Ipv4Header (tos 0x0 DSCP Default ECN Not-ECT ttl 64 id 1 protocol 17 offset (bytes) 0 flags [none] length: 540 10.1.2.1 > 10.1.2.2) ns3::UdpHeader (length: 520 49153 > 9) Payload (size=512)
+ 1.11886 /NodeList/0/DeviceList/1/$ns3::PointToPointNetDevice/TxQueue/Enqueue ns3::PppHeader (Point-to-Point Protocol: IP (0x0021)) ns3::Ipv4Header (tos 0x0 DSCP Default ECN Not-ECT ttl 64 id 12 protocol 17 offset (bytes) 0 flags [none] length: 540 10.1.1.1 > 10.1.1.2) ns3::UdpHeader (length: 520 49153 > 9) Payload (size=512)
r 1.12064 /NodeList/0/DeviceList/1/$ns3::PointToPointNetDevice/MacRx ns3::PppHeader (Point-to-Point Protocol: IP (0x0021)) ns3::Ipv4Header (tos 0x0 DSCP Default ECN Not-ECT ttl 64 id 10 protocol 1 offset (bytes) 0 flags [none] length: 56 10.1.1.2 > 10.1.1.1) ns3::Icmpv4Header (type=3, code=3) ns3::Icmpv4DestinationUnreachable (tos 0x0 DSCP Default ECN Not-ECT ttl 64 id 10 protocol 17 offset (bytes) 0 flags [none] length: 540 10.1.1.1 > 10.1.1.2 org data=192 1 0 9 2 8 0 0 )
r 1.12082 /NodeList/3/DeviceList/2/$ns3::PointToPointNetDevice/MacRx ns3::PppHeader (Point-to-Point Protocol: IP (0x0021)) ns3::Ipv4Header (tos 0x0 DSCP Default ECN Not-ECT ttl 64 id 0 protocol 17 offset (bytes) 0 flags [none] length: 540 10.1.2.1 > 10.1.2.2) ns3::UdpHeader (length: 520 49153 > 9) Payload (size=512)
+ 1.12082 /NodeList/3/DeviceList/2/$ns3::PointToPointNetDevice/TxQueue/Enqueue ns3::PppHeader (Point-to-Point Protocol: IP (0x0021)) ns3::Ipv4Header (tos 0x0 DSCP Default ECN Not-ECT ttl 64 id 0 protocol 1 offset (bytes) 0 flags [none] length: 56 10.1.2.2 > 10.1.2.1) ns3::Icmpv4Header (type=3, code=3) ns3::Icmpv4DestinationUnreachable (tos 0x0 DSCP Default ECN Not-ECT ttl 64 id 0 protocol 17 offset (bytes) 0 flags [none] length: 540 10.1.2.1 > 10.1.2.2 org data=192 1 0 9 2 8 0 0 )